% Model:              2021-03-17_EField_In_Planar_Cavity_BTO.mph
% Version:            COMSOL 5.6.0.280
% Date:               Mar 19 2021, 11:47
% Dimension:          1
% Nodes:              213
% Expressions:        52
% Description:        Line graph
% cln3x,Height,Height,Height,Height,Height,Height,Height,Height,Height,Height,Height,Height,Height,Height,Height,Height,Height,Height,Height,Height,Height,Height,Height,Height,Height,Height,Height,Height,Height,Height,Height,Height,Height,Height,Height,Height,Height,Height,Height,Height,Height,Height,Height,Height,Height,Height,Height,Height,Height,Height,Height,Height
0,0,86312.89648193287,172625.79296386574,258938.68944579776,345251.5859277315,431564.4824096627,517877.3788915955,604190.2753735313,690503.171855463,776816.0683373961,863128.9648193254,949441.8613012566,1035754.757783191,1122067.654265122,1208380.5507470625,1294693.4472289975,1381006.343710926,1467319.2401928683,1553632.1366747923,1639945.033156718,1726257.9296386507,1812570.8261205966,1898883.7226025132,1985196.6190844516,2071509.515566382,2157822.4120483305,2244135.308530244,2330448.20501218,2416761.101494125,2503073.9979760386,2589386.894457995,2675699.7909399294,2762012.687421852,2848325.5839037797,2934638.4803857366,3020951.376867649,3107264.2733495845,3193577.169831532,3279890.066313436,3366202.962795363,3452515.8592773015,3538828.7557592457,3625141.652241193,3711454.5487231333,3797767.4452050263,3884080.3416869813,3970393.238168903,4056706.134650814,4143019.031132764,4229331.927614689,4315644.824096661,4401957.720578575
0.0020032576419894777,0,86317.93165798225,172635.8633159645,258953.7949739457,345271.726631929,431589.65828990994,517907.5899478914,604225.5216058778,690543.453263858,776861.3849218403,863179.3165798199,949497.248237799,1035815.1798957828,1122133.1115537626,1208451.0432117556,1294768.9748697379,1381086.906527716,1467404.8381857036,1553722.7698436806,1640040.701501655,1726358.6331596398,1812676.5648176344,1898994.496475598,1985312.4281335843,2071630.3597915657,2157948.291449563,2244266.223107525,2330584.1547655067,2416902.086423511,2503220.018081468,2589537.9497394757,2675855.881397457,2762173.813055432,2848491.744713407,2934809.676371407,3021127.6080293786,3107445.539687361,3193763.4713453557,3280081.40300331,3366399.3346612896,3452717.2663192796,3539035.197977266,3625353.129635269,3711671.061293256,3797988.992951196,3884306.9246091982,3970624.8562671687,4056942.7879251256,4143260.7195831314,4229578.651241104,4315896.582899126,4402214.514557087
0.030044161983536162,0,86388.4123025978,172776.8246051956,259165.23690779274,345553.6492103912,431942.06151298794,518330.4738155855,604718.8861181869,691107.2984207824,777495.7107233806,863884.1230259759,950272.535328572,1036660.947631171,1123049.3599337672,1209437.7722363737,1295826.1845389705,1382214.5968415649,1468603.009144172,1554991.421446761,1641379.8337493541,1727768.2460519518,1814156.658354559,1900545.070657144,1986933.482959745,2073321.895262342,2159710.307564955,2246098.7198675345,2332487.1321701333,2418875.5444727475,2505263.9567753235,2591652.369077941,2678040.781380544,2764429.1936831297,2850817.6059857197,2937206.018288344,3023594.430590929,3109982.842893522,3196371.2551961374,3282759.6674987082,3369148.079801298,3455536.4921039036,3541924.9044065117,3628313.316709118,3714701.729011729,3801090.141314288,3887478.5536169033,3973866.96591949,4060255.3782220623,4146643.790524684,4233032.202827271,4319420.61512991,4405809.027432485
0.05788105229171786,0,86458.38015916666,172916.7603183333,259375.14047749928,345833.5206366666,432291.90079583204,518750.28095499857,605208.6611141688,691667.0412733332,778125.4214325008,864583.8015916641,951042.1817508299,1037500.5619099971,1123958.9420691605,1210417.3222283376,1296875.702387505,1383334.0825466665,1469792.462705843,1556250.8428650016,1642709.223024163,1729167.6031833282,1815625.983342507,1902084.3635016598,1988542.743660828,2075001.1238199943,2161459.5039791767,2247917.884138321,2334376.264297492,2420834.6444566753,2507293.0246158205,2593751.40477501,2680209.784934179,2766668.165093333,2853126.545252494,2939584.925411686,3026043.305570843,3112501.6857300033,3198960.0658891844,3285418.446048326,3371876.826207486,3458335.2063666563,3544793.5865258407,3631251.966685014,3717710.346844189,3804168.7270033197,3890627.107162504,3977085.487321656,4063543.8674807986,4150002.2476399885,4236460.627799146,4322919.0079583535,4409377.3881175
0.08272319309468626,0,86525.75213721624,173051.5042744325,259577.25641164827,346103.008548865,432628.7606860798,519154.51282329654,605680.2649605148,692206.01709773,778731.7692349472,865257.5213721596,951783.273509376,1038309.0256465931,1124834.7777838057,1211360.5299210297,1297886.2820582471,1384412.03419546,1470937.7863326839,1557463.5384698943,1643989.2906071038,1730515.0427443192,1817040.794881547,1903566.547018752,1990092.2991559678,2076618.0512931861,2163143.8034304143,2249669.5555676115,2336195.30770483,2422721.0598420594,2509246.8119792556,2595772.5641164943,2682298.3162537133,2768824.06839092,2855349.8205281324,2941875.5726653677,3028401.324802571,3114927.0769397886,3201452.8290770184,3287978.5812142077,3374504.3333514137,3461030.0854886384,3547555.837625869,3634081.589763094,3720607.3419003156,3807133.094037504,3893658.8461747398,3980184.5983119356,4066710.3504491257,4153236.1025863723,4239761.854723577,4326287.606860829,4412813.3589980295
0.09288206408397405,0,86554.49930144206,173108.99860288412,259663.49790432598,346217.99720576825,432772.4965072096,519326.99580865196,605881.4951100964,692435.9944115365,778990.49371298,865544.9930144192,952099.4923158599,1038653.9916173039,1125208.4909187432,1211762.9902201928,1298317.4895216366,1384871.988823073,1471426.4881245256,1557980.98742596,1644535.4867273967,1731089.9860288384,1817644.485330288,1904198.9846317198,1990753.4839331612,2077307.9832346078,2163862.482536062,2250416.9818374864,2336971.4811389325,2423525.9804403856,2510080.479741806,2596634.9790432733,2683189.4783447143,2769743.977646146,2856298.476947583,2942852.9762490513,3029407.4755504807,3115961.97485192,3202516.474153374,3289070.9734547934,3375625.4727562233,3462179.972057677,3548734.471359131,3635288.970660576,3721843.469962022,3808397.9692634395,3894952.468564903,3981506.9678663225,4068061.467167745,4154615.9664692157,4241170.465770641,4327724.965072124,4414279.464373543
0.1135934986862382,0,86613.10768543498,173226.21537086996,259839.3230563049,346452.4307417399,433065.5384271747,519678.6461126098,606291.7537980474,692904.8614834798,779517.9691689166,866131.0768543493,952744.1845397834,1039357.2922252195,1125970.3999106518,1212583.5075960949,1299196.615281531,1385809.7229669597,1472422.830652406,1559035.9383378332,1645649.0460232634,1732262.1537086987,1818875.2613941426,1905488.3690795668,1992101.476765003,2078714.584450439,2165327.6921358863,2251940.7998213037,2338553.907506738,2425167.0151921897,2511780.1228776053,2598393.230563062,2685006.338248499,2771619.4459339194,2858232.5536193545,2944845.661304812,3031458.768990238,3118071.8766756663,3204684.984361114,3291298.0920465267,3377911.1997319483,3464524.3074173974,3551137.4151028446,3637750.5227882853,3724363.630473724,3810976.7381591336,3897589.8458445827,3984202.953530006,4070816.0612154105,4157429.168900878,4244042.2765863,4330655.384271773,4417268.491957193
0.13603030441345304,0,86676.59845518973,173353.19691037945,260029.79536556944,346706.3938207589,433382.9922759489,520059.5907311389,606736.1891863311,693412.7876415178,780089.3860967094,866765.9845518979,953442.5830070879,1040119.1814622778,1126795.779917464,1213472.3783726622,1300148.9768278527,1386825.5752830356,1473502.173738237,1560178.7721934188,1646855.3706486062,1733531.9691037957,1820208.567558993,1906885.1660141759,1993561.7644693614,2080238.3629245555,2166914.9613797595,2253591.559834928,2340268.15829012,2426944.7567453245,2513621.3552004965,2600297.9536557053,2686974.5521108997,2773651.1505660713,2860327.749021261,2947004.347476474,3033680.945931657,3120357.5443868376,3207034.1428420455,3293710.7412972124,3380387.3397523914,3467063.9382075914,3553740.536662793,3640417.135117986,3727093.733573185,3813770.3320283517,3900446.9304835433,3987123.528938723,4073800.127393894,4160476.725849111,4247153.324304291,4333829.922759519,4420506.521214692
0.16404612263617685,0,86755.87648994655,173511.7529798931,260267.62946984038,347023.5059597862,433779.3824497318,520535.25893968076,607291.1354296284,694047.0119195724,780802.8884095198,867558.7648994636,954314.6413894141,1041070.5178793615,1127826.3943693026,1214582.2708592569,1301338.1473492056,1388094.0238391447,1474849.9003291028,1561605.7768190396,1648361.6533089841,1735117.5297989273,1821873.4062888857,1908629.2827788282,1995385.1592687694,2082141.035758723,2168896.9122486766,2255652.788738605,2342408.6652285536,2429164.5417185137,2515920.418208442,2602676.294698411,2689432.171188357,2776188.0476782895,2862943.9241682407,2949699.8006582055,3036455.6771481466,3123211.553638079,3209967.430128039,3296723.3066179683,3383479.183107902,3470235.0595978545,3556990.9360878253,3643746.8125777715,3730502.6890677223,3817258.5655576563,3904014.442047607,3990770.318537539,4077526.195027457,4164282.071517446,4251037.948007371,4337793.824497353,4424549.700987286
0.20746094995529304,0,86878.73002082703,173757.46004165406,260636.190062482,347514.9200833081,434393.6501041349,521272.380124964,608151.1101457921,695029.8401666163,781908.5701874465,868787.3002082699,955666.0302291004,1042544.760249928,1129423.4902707487,1216302.2202915843,1303180.9503124142,1390059.6803332325,1476938.4103540739,1563817.140374893,1650695.8703957184,1737574.6004165397,1824453.3304373745,1911332.0604582008,1998210.7904790223,2085089.520499856,2171968.2505206903,2258846.9805414975,2345725.7105623344,2432604.4405831685,2519483.1706039803,2606361.9006248284,2693240.6306456523,2780119.360666465,2866998.0906873015,2953876.8207081477,3040755.5507289623,3127634.280749786,3214513.010770628,3301391.7407914368,3388270.470812247,3475149.2008330794,3562027.9308539256,3648906.660874749,3735785.3908955813,3822664.1209164015,3909542.8509372273,3996421.5809580446,4083300.310978845,4170179.040999712,4257057.771020522,4343936.501041381,4430815.231062204
0.21990740634127937,0,86913.95050213214,173827.90100426428,260741.8515063971,347655.80200852855,434569.75251066056,521483.7030127942,608397.6535149271,695311.6040170571,782225.5545191927,869139.5050213211,956053.4555234569,1042967.4060255884,1129881.3565277145,1216795.3070298543,1303709.2575319898,1390623.2080341142,1477537.1585362584,1564451.1090383853,1651365.0595405146,1738279.0100426422,1825192.9605447825,1912106.9110469138,1999020.8615490398,2085934.8120511768,2172848.762553319,2259762.713055429,2346676.6635575653,2433590.6140597085,2520504.564561826,2607418.5150639797,2694332.465566111,2781246.4160682284,2868160.366570366,2955074.317072517,3041988.267574637,3128902.2180767707,3215816.1685789116,3302730.119081029,3389644.0695831454,3476558.0200852845,3563471.970587437,3650385.921089565,3737299.8715916984,3824213.8220938276,3911127.7725959606,3998041.7230980797,4084955.6736001857,4171869.6241023536,4258783.574604471,4345697.525106638,4432611.4756087605
0.2412086550643289,0,86974.22791838368,173948.45583676736,260922.68375515105,347896.9116735347,434871.13959191745,521845.3675103021,608819.595428688,695793.8233470694,782768.0512654543,869742.2791838349,956716.5071022238,1043690.7350206042,1130664.9629389816,1217639.190857376,1304613.4187757643,1391587.6466941389,1478561.8746125344,1565536.1025309085,1652510.3304492896,1739484.5583676698,1826458.786286063,1913433.0142044476,2000407.2421228206,2087381.4700412084,2174355.6979596005,2261329.925877963,2348304.153796356,2435278.381714752,2522252.6096331202,2609226.8375515286,2696201.065469906,2783175.2933882778,2870149.5213066633,2957123.749225069,3044097.977143445,3131072.205061817,3218046.432980208,3305020.6608985793,3391994.8888169457,3478969.1167353396,3565943.3446537447,3652917.572572126,3739891.8004905153,3826866.0284088952,3913840.2563272747,4000814.484245641,4087788.712164008,4174762.940082417,4261737.168000785,4348711.395919201,4435685.623837576
0.2453690521776674,0,86986.00084267708,173972.00168535416,260958.00252803203,347944.0033707083,434930.00421338464,521916.00505606405,608902.0058987421,695888.0067414166,782874.0075840957,869860.0084267693,956846.0092694513,1043832.0101121281,1130818.0109547966,1217804.0117974842,1304790.0126401642,1391776.0134828333,1478762.0143255207,1565748.0151681914,1652734.0160108684,1739720.0168535386,1826706.0176962216,1913692.0185389025,2000678.01938157,2087664.0202242562,2174650.0210669423,2261636.021909593,2348622.0227522803,2435608.0235949685,2522594.0244376315,2609580.0252803285,2696566.0261230012,2783552.0269656666,2870538.0278083463,2957524.0286510414,3044510.029493719,3131496.030336383,3218482.031179071,3305468.0320217367,3392454.032864394,3479440.033707077,3566426.0345497793,3653412.035392443,3740398.036235137,3827384.037077805,3914370.0379204773,4001356.03876314,4088342.0396057987,4175328.0404485124,4262314.0412911745,4349300.0421338845,4436286.042976541
0.2526777453305568,0,87006.68268838253,174013.36537676505,261020.04806514797,348026.7307535301,435033.4134419129,522040.09613029595,609046.7788186818,696053.4615070602,783060.1441954459,870066.8268838258,957073.5095722127,1044080.1922605919,1131086.8749489714,1218093.5576373637,1305100.240325745,1392106.9230141204,1479113.605702515,1566120.2883908919,1653126.9710792769,1740133.6537676516,1827140.3364560425,1914147.0191444254,2001153.7018327978,2088160.3845211838,2175167.0672095786,2262173.749897943,2349180.432586331,2436187.1152747273,2523193.79796309,2610200.48065149,2697207.163339872,2784213.846028241,2871220.5287166266,2958227.21140503,3045233.894093404,3132240.5767817837,3219247.2594701806,3306253.9421585537,3393260.6248469125,3480267.3075353033,3567273.990223709,3654280.672912085,3741287.3556004674,3828294.038288851,3915300.720977226,4002307.4036655957,4089314.086353953,4176320.7690423676,4263327.451730742,4350334.134419157,4437340.817107536
0.25829986118032394,0,87022.59192552161,174045.18385104323,261067.77577656528,348090.36770208646,435112.9596276077,522135.55155313056,609158.1434786535,696180.7354041729,783203.3273296957,870225.9192552154,957248.511180741,1044271.1031062611,1131293.6950317752,1218316.286957307,1305338.878882832,1392361.4708083458,1479384.0627338805,1566406.6546593914,1653429.246584912,1740451.838510431,1827474.4304359588,1914497.022361482,2001519.6142869943,2088542.2062125222,2175564.7981380513,2262587.3900635503,2349609.9819890833,2436632.573914614,2523655.165840119,2610677.757765664,2697700.3496911833,2784722.9416166916,2871745.5335422074,2958768.125467761,3045790.717393269,3132813.3093187828,3219835.901244318,3306858.493169824,3393881.0850953325,3480903.677020862,3567926.2689464022,3654948.8608719176,3741971.452797447,3828994.044722964,3916016.6366484826,4003039.2285739887,4090061.8204994802,4177084.4124250445,4264107.004350553,4351129.596276103,4438152.188201608
0.32203983582661155,0,87202.96074021162,174405.92148042325,261608.88222063583,348811.8429608465,436014.80370105803,523217.76444127166,610420.7251814847,697623.685921693,784826.6466619081,872029.6074021161,959232.5681423353,1046435.5288825433,1133638.4896227482,1220841.4503629694,1308044.411103187,1395247.371843386,1482450.3325836132,1569653.2933238163,1656856.2540640335,1744059.2148042321,1831262.1755444547,1918465.1362846706,2005668.0970248738,2092871.0577650866,2180074.0185053074,2267276.9792454964,2354479.9399857186,2441682.900725939,2528885.861466136,2616088.822206374,2703291.782946576,2790494.743686772,2877697.70442699,2964900.6651672265,3052103.625907434,3139306.5866476325,3226509.547387846,3313712.508128067,3400915.4688682454,3488118.4296084642,3575321.390348698,3662524.3510889094,3749727.3118291176,3836930.272569341,3924133.2333095362,4011336.1940497477,4098539.154789926,4185742.1155301733,4272945.076270372,4360148.037010615,4447350.997750808
0.32669198171915803,0,87216.12519540766,174432.25039081532,261648.3755862243,348864.50078163063,436080.6259770376,523296.7511724486,610512.8763678548,697729.0015632613,784945.1267586711,872161.2519540752,959377.3771494874,1046593.5023448972,1133809.627540292,1221025.7527357095,1308241.8779311192,1395458.0031265225,1482674.128321942,1569890.2535173423,1657106.37871275,1744322.5039081504,1831538.6291035602,1918754.7542989748,2005970.8794943686,2093187.0046897945,2180403.1298852055,2267619.255080584,2354835.380276004,2442051.505471419,2529267.630666815,2616483.7558622384,2703699.8810576433,2790916.006253045,2878132.13144845,2965348.256643884,3052564.3818392805,3139780.5070346845,3226996.632230091,3314212.7574255,3401428.882620881,3488645.0078163007,3575861.133011732,3663077.2582071205,3750293.3834025455,3837509.5085979495,3924725.63379336,4011941.758988737,4099157.884184126,4186374.009379589,4273590.134574973,4360806.259770411,4448022.384965802
0.3380681733668764,0,87248.31708463491,174496.63416926982,261744.9512539061,348993.26833853964,436241.5854231751,523489.9025078122,610738.219592449,697986.5366770793,785234.8537617173,872483.1708463501,959731.4879309927,1046979.8050156244,1134228.1221002524,1221476.439184898,1308724.7562695348,1395973.0733541586,1483221.3904388093,1570469.7075234347,1657718.0246080721,1744966.3416927003,1832214.6587773392,1919462.9758619855,2006711.292946599,2093959.6100312488,2181207.92711589,2268456.244200505,2355704.5612851405,2442952.878369796,2530201.1954544084,2617449.5125390696,2704697.8296237024,2791946.146708317,2879194.463792962,2966442.7808776186,3053691.097962247,3140939.4150468693,3228187.732131515,3315436.0492161443,3402684.3663007626,3489932.6833854006,3577181.00047005,3664429.3175546783,3751677.63463932,3838925.951723971,3926174.2688085795,4013422.585893198,4100670.9029778186,4187919.2200624975,4275167.537147114,4362415.85423178,4449664.171316403
0.3688238114424195,0,87335.34815133206,174670.69630266412,262006.0444539974,349341.39260532823,436676.7407566613,524012.0889079948,611347.4370593291,698682.7852106565,786018.1333619932,873353.4815133226,960688.82966466,1048024.1778159896,1135359.5259673148,1222694.8741186582,1310030.2222699923,1397365.570421313,1484700.9185726657,1572036.2667239865,1659371.6148753213,1746706.9630266451,1834042.3111779809,1921377.65932932,2008713.0074806442,2096048.3556319792,2183383.7037833175,2270719.0519346297,2358054.4000859726,2445389.7482373165,2532725.0963886282,2620060.4445399847,2707395.792691318,2794731.140842626,2882066.4889939753,2969401.8371453313,3056737.185296652,3144072.533447973,3231407.881599318,3318743.2297506426,3406078.5779019394,3493413.9260532903,3580749.2742046444,3668084.6223559617,3755419.97050729,3842755.31865864,3930090.666809973,4017426.0149612883,4104761.3631125945,4192096.7112639584,4279432.059415287,4366767.407566635,4454102.755717956
0.4078069702426002,0,88071.64379451895,176143.2875890379,264214.9313835566,352286.5751780758,440358.2189725966,528429.8627671133,616501.5065616368,704573.1503561516,792644.7941506678,880716.4379451931,968788.0817397131,1056859.7255342265,1144931.3693287538,1233003.0131232736,1321074.656917786,1409146.3007123033,1497217.9445068426,1585289.5883013357,1673361.2320958518,1761432.8758903863,1849504.5196849213,1937576.1634794262,2025647.8072739348,2113719.451068453,2201791.0948629784,2289862.7386575076,2377934.382452018,2466006.0262465472,2554077.670041036,2642149.313835572,2730220.957630085,2818292.6014246065,2906364.245219106,2994435.8890136853,3082507.5328081734,3170579.1766026714,3258650.8203972448,3346722.4641917036,3434794.1079862514,3522865.7517807726,3610937.3955753203,3699009.0393698425,3787080.683164323,3875152.3269588524,3963223.970753359,4051295.6145478697,4139367.2583423844,4227438.902136906,4315510.545931424,4403582.189725957,4491653.833520475
0.4123538652384045,0,88090.70564298038,176181.41128596076,264272.1169289407,352362.8225719215,440453.52821490396,528544.2338578814,616634.9395008665,704725.645143843,792816.3507868191,880907.0564298079,968997.7620727876,1057088.4677157628,1145179.17335875,1233269.879001733,1321360.5846447072,1409451.290287686,1497541.9959306873,1585632.7015736382,1673723.4072166171,1761814.1128596158,1849904.8185026103,1937995.5241455752,2026086.2297885478,2114176.9354315256,2202267.641074511,2290358.3467175,2378449.0523604746,2466539.758003466,2554630.4636464175,2642721.1692894143,2730811.8749323827,2818902.580575372,2906993.2862183293,2995083.9918613746,3083174.6975043262,3171265.4031472765,3259356.1087903143,3347446.8144332343,3435537.520076248,3523628.2257192316,3611718.9313622373,3699809.6370052206,3787900.3426481634,3875991.0482911505,3964081.753934123,4052172.4595770957,4140263.165220068,4228353.870863051,4316444.576506032,4404535.282149022,4492625.987792002
0.4214163309808082,0,88128.6980199376,176257.3960398752,264386.09405981237,352514.7920797504,440643.49009969,528772.1881196247,616900.8861395679,705029.5841595008,793158.282179435,881286.98019938,969415.6782193168,1057544.3762392495,1145673.0742591948,1233801.7722791359,1321930.4702990667,1410059.1683190016,1498187.8663389569,1586316.56435887,1674445.2623788055,1762573.96039876,1850702.6584187134,1938831.3564386335,2026960.0544585634,2115088.752478499,2203217.45049844,2291346.1485183896,2379474.8465383197,2467603.5445582718,2555732.2425781763,2643860.9405981335,2731989.6386180585,2820118.336638003,2908247.034657918,2996375.7326779137,3084504.4306978276,3172633.12871774,3260761.8267377326,3348890.524757611,3437019.2227775794,3525147.92079752,3613276.6188174854,3701405.3168374267,3789534.014857325,3877662.712877267,3965791.410897192,4053920.108917127,4142048.8069370617,4230177.504956998,4318306.202976934,4406434.90099688,4494563.599016827
0.49698120124721923,0,88445.48697313151,176890.97394626302,265336.46091939433,353781.94789252605,442227.434865659,530672.9218387887,619118.4088119243,707563.8957850521,796009.3827581789,884454.869731318,972900.3567044494,1061345.8436775773,1149791.330650715,1238236.8176238486,1326682.304596971,1415127.7915701042,1503573.278543256,1592018.7655163577,1680464.2524894916,1768909.739462636,1857355.2264357815,1945800.7134088988,2034246.2003820213,2122691.6873551547,2211137.17432829,2299582.66130143,2388028.148274552,2476473.635247697,2564919.122220798,2653364.609193942,2741810.096167075,2830255.5831402084,2918701.070113316,3007146.557086512,3095592.0440596147,3184037.5310327155,3272483.0180059047,3360928.504978983,3449373.9919521324,3537819.478925272,3626264.965898429,3714710.452871563,3803155.9398446605,3891601.4268177976,3980046.9137909277,4068492.4007640425,4156937.8877371647,4245383.374710309,4333828.86168344,4422274.34865658,4510719.835629714
0.5012212893695042,0,88463.26260184625,176926.5252036925,265389.78780553816,353853.050407385,442316.3130092328,530779.5756110763,619242.8382129278,707706.10081477,796169.3634166116,884632.6260184656,973095.8886203128,1061559.1512221526,1150022.4138240062,1238485.6764258556,1326948.939027694,1415412.20162954,1503875.4642314068,1592338.7268332231,1680801.9894350702,1769265.2520369312,1857728.5146387932,1946191.7772406256,2034655.039842461,2123118.3024443053,2211581.565046157,2300044.8276480124,2388508.0902498476,2476971.352851711,2565434.6154535264,2653897.878055388,2742361.140657228,2830824.40325908,2919287.6658609025,3007750.9284628136,3096214.191064627,3184677.4536664463,3273140.716268351,3361603.9788701404,3450067.2414720114,3538530.5040738625,3626993.766675731,3715457.0292775864,3803920.2918793955,3892383.554481251,3980846.8170830924,4069310.079684922,4157773.342286759,4246236.604888611,4334699.867490465,4423163.130092314,4511626.392694168
0.5026802789957858,0,88469.37909215159,176938.75818430318,265408.1372764545,353877.51636860636,442346.89546076005,530816.274552909,619285.6536450648,707755.0327372127,796224.4118293611,884693.7909215201,973163.1700136712,1061632.549105818,1150101.9281979762,1238571.3072901296,1327040.6863822748,1415510.0654744254,1503979.4445665984,1592448.8236587222,1680918.2027508751,1769387.5818430402,1857856.9609352062,1946326.3400273423,2034795.7191194836,2123265.098211636,2211734.47730379,2300203.8563959524,2388673.2354880935,2477142.614580259,2565611.993672384,2654081.3727645497,2742550.7518566973,2831020.130948851,2919489.5100409794,3007958.889133197,3096428.2682253155,3184897.6473174444,3273367.0264096474,3361836.4055017503,3450305.784593923,3538775.1636860804,3627244.5427782587,3715713.9218704123,3804183.3009625347,3892652.6800546846,3981122.059146836,4069591.438238967,4158060.81733111,4246530.196423272,4334999.575515428,4423468.95460758,4511938.333699746
0.5114787223481014,0,88692.5209026677,177385.0418053354,266077.5627080019,354770.0836106708,443462.60451333993,532155.1254160037,620847.646318676,709540.1672213416,798232.6881240043,886925.2090266799,975617.7299293462,1064310.2508320075,1153002.771734681,1241695.292637352,1330387.8135400147,1419080.3344426833,1507772.8553453689,1596465.3762480086,1685157.8971506748,1773850.4180533597,1862542.938956038,1951235.4598586925,2039927.9807613506,2128620.501664015,2217313.0225666873,2306005.543469362,2394698.064372027,2483390.585274704,2572083.106177347,2660775.6270800293,2749468.1479826886,2838160.6688853665,2926853.1897880007,3015545.7106907377,3104238.231593369,3192930.752496017,3281623.273398743,3370315.7943013497,3459008.315204043,3547700.8361067194,3636393.3570094034,3725085.877912076,3813778.3988147094,3902470.919717385,3991163.440620048,4079855.961522701,4168548.4824253577,4257241.00332803,4345933.524230698,4434626.045133375,4523318.566036051
0.5255106937672985,0,88831.6248434737,177663.2496869474,266494.8745304205,355326.4993738948,444158.1242173708,532989.749060841,621821.3739043195,710652.9987477897,799484.6235912589,888316.2484347416,977147.8732782142,1065979.498121682,1154811.122965162,1243642.747808639,1332474.3726521048,1421305.9974955793,1510137.6223390724,1598969.2471825178,1687800.8720259946,1776632.4968694833,1865464.1217129666,1954295.7465564285,2043127.3713998925,2131958.996243364,2220790.62108684,2309622.245930324,2398453.870773792,2487285.495617278,2576117.1204607277,2664948.7453042096,2753780.370147679,2842611.9949911586,2931443.6198346056,3020275.244678145,3109106.8695215853,3197938.4943650356,3286770.1192085715,3375601.744051989,3464433.3688954846,3553264.9937389665,3642096.61858246,3730928.243425933,3819759.8682693713,3908591.493112857,3997423.117956318,4086254.742799785,4175086.3676432515,4263917.992486728,4352749.6173302,4441581.24217368,4530412.867017168
0.5268992588063566,0,88845.39018429637,177690.78036859274,266536.1705528887,355381.5607371855,444226.9509214832,533072.3411057774,621917.7312900776,710763.121474371,799608.5116586629,888453.9018429664,977299.2920272637,1066144.6822115548,1154990.0723958549,1243835.462580155,1332680.8527644442,1421526.242948742,1510371.6331330533,1599217.0233173259,1688062.413501622,1776907.803685933,1865753.1938702432,1954598.5840545273,2043443.9742388106,2132289.3644231097,2221134.7546074074,2309980.1447917097,2398825.5349760056,2487670.92516031,2576516.3153445786,2665361.7055288884,2754207.0957131763,2843052.485897484,2931897.8760817493,3020743.2662661066,3109588.6564503806,3198434.0466346517,3287279.4368190076,3376124.827003244,3464970.2171875658,3553815.607371866,3642660.9975561853,3731506.3877404863,3820351.777924743,3909197.1681090547,3998042.5582933417,4086887.948477621,4175733.338661914,4264578.728846219,4353424.1190305175,4442269.509214815,4531114.899399115
0.5711239213750567,0,89283.80504849117,178567.61009698233,267851.4151454732,357135.22019396466,446419.0252424573,535702.8302909464,624986.6353394411,714270.4403879293,803554.2454364159,892838.0504849146,982121.8555334071,1071405.6605818928,1160689.4656303877,1249973.2706788823,1339257.075727368,1428540.8807758586,1517824.6858243637,1607108.4908728318,1696392.2959213252,1785676.1009698291,1874959.906018334,1964243.7110668141,2053527.5161152913,2142811.3211637856,2232095.1262122774,2321378.9312607753,2410662.7363092615,2499946.5413577645,2589230.3464062335,2678514.151454736,2767797.9565032204,2857081.7615517173,2946365.5666001835,3035649.3716487275,3124933.176697201,3214216.9817456636,3303500.786794215,3392784.5918426504,3482068.396891159,3571352.2019396583,3660636.0069881617,3749919.812036668,3839203.6170851225,3928487.4221336283,4017771.2271821033,4107055.0322305826,4196338.837279069,4285622.642327571,4374906.447376055,4464190.252424555,4553474.057473061
0.585268061149164,0,89424.02095423342,178848.04190846684,268272.06286270055,357696.0838169337,447120.10477116867,536544.1257254011,625968.1466796383,715392.1676338674,804816.1885880956,894240.2095423373,983664.2304965716,1073088.2514508022,1162512.2724050393,1251936.2933592766,1341360.3143135023,1430784.3352677347,1520208.3562219846,1609632.3771761912,1699056.3981304315,1788480.4190846747,1877904.4400389239,1967328.4609931433,2056752.4819473636,2146176.5029016044,2235600.5238558394,2325024.5448100786,2414448.5657643043,2503872.586718553,2593296.607672764,2682720.6286270046,2772144.6495812326,2861568.6705354694,2950992.691489681,3040416.712443969,3129840.7333981777,3219264.7543523824,3308688.7753066765,3398112.796260863,3487536.817215112,3576960.8381693494,3666384.859123603,3755808.8800778477,3845232.9010320473,3934656.9219862865,4024080.9429405127,4113504.963894727,4202928.984848964,4292353.005803209,4381777.026757438,4471201.047711679,4560625.06866592